 &FCI NORB=            9 ,NELEC=           2 ,MS2=            0 ,
  ORBSYM=
                   0,                   0,                   0,                   0,                   0,                   0,                   0,                   0,                   0,
  ISYM=           1
 NPROP =           1           1           1
 PROPBITLEN=          15
 &END
 (1.02615545055274,2.719282815501074E-028)           1           1           1
           1
 (-3.255456713123955E-002,1.274399090444393E-004)           1           1
           1           2
 (-5.602005421413141E-002,2.880317497665250E-003)           1           1
           1           8
 (-3.255456713123950E-002,1.274399090444391E-004)           1           2
           1           1
 (1.518495763299409E-003,-1.188893574589770E-005)           1           2
           1           2
 (2.656394173265045E-003,-1.470091878188312E-004)           1           2
           1           8
 (-5.532103452811347E-004,7.528026705733254E-005)           1           3
           1           3
 (-9.287866617077693E-006,-8.478138810326990E-005)           1           3
           1           4
 (1.002747638530277E-003,-1.577727197454676E-004)           1           3
           1           9
 (-9.287866617077688E-006,-8.478138810326999E-005)           1           4
           1           3
 (-5.553037973413182E-004,4.779867841923402E-005)           1           4
           1           4
 (-1.315544874036623E-005,-2.654136866278770E-005)           1           4
           1           5
 (2.129208415328318E-005,1.533868362481753E-004)           1           4
           1           9
 (-1.315544874036662E-005,-2.654136866278765E-005)           1           5
           1           4
 (-3.687116384092130E-004,4.265486012867193E-004)           1           5
           1           5
 (1.909845241784130E-005,-3.265689768757973E-006)           1           6
           1           6
 (1.878043722735056E-005,-4.765531961717587E-006)           1           7
           1           7
 (-5.602005421413129E-002,2.880317497665248E-003)           1           8
           1           1
 (2.656394173265043E-003,-1.470091878188306E-004)           1           8
           1           2
 (4.644944656724714E-003,-4.789135874093585E-004)           1           8
           1           8
 (1.002747638530275E-003,-1.577727197454679E-004)           1           9
           1           3
 (2.129208415328277E-005,1.533868362481756E-004)           1           9
           1           4
 (-1.825841091249038E-003,3.263549017756244E-004)           1           9
           1           9
 (-3.255456713123950E-002,-1.274399090444391E-004)           1           1
           2           1
 (0.176537670259998,1.839899170488557E-020)           1           1           2
           2
 (3.165395388782655E-002,-1.503289933879789E-003)           1           1
           2           8
 (1.518542304300890E-003,1.828786273932476E-023)           1           2
           2           1
 (1.197289164409129E-004,-4.687059852880117E-007)           1           2
           2           2
 (-2.497030796716913E-004,1.283867721759473E-005)           1           2
           2           8
 (-1.068525102706976E-003,1.411452871059266E-004)           1           3
           2           3
 (-1.729152686183517E-005,-1.637514944396074E-004)           1           3
           2           4
 (7.021994335030114E-004,-1.076691503918621E-004)           1           3
           2           9
 (-1.729069475389083E-005,-1.637375732932058E-004)           1           4
           2           3
 (-1.072445109582407E-003,8.808443799350750E-005)           1           4
           2           4
 (-2.519786395281597E-005,-5.134066197206805E-005)           1           4
           2           5
 (1.448062952642391E-005,1.074040118379790E-004)           1           4
           2           9
 (-2.519765411602434E-005,-5.134075619519094E-005)           1           5
           2           4
 (-7.150684545540619E-004,8.207198396074546E-004)           1           5
           2           5
 (2.250084241242557E-004,-3.756874497227505E-005)           1           6
           2           6
 (8.731578269226571E-006,4.198994250998523E-005)           1           6
           2           7
 (8.731556577178886E-006,4.198994756043979E-005)           1           7
           2           6
 (2.213331852601268E-004,-5.524188235680722E-005)           1           7
           2           7
 (2.657463719527968E-003,-1.262073074405914E-004)           1           8
           2           1
 (1.667217730354062E-004,-8.572119696857337E-006)           1           8
           2           2
 (-3.702929742655570E-004,3.671446487545532E-005)           1           8
           2           8
 (1.710858351477424E-003,-2.623278402286320E-004)           1           9
           2           3
 (3.528446802741892E-005,2.617051312268386E-004)           1           9
           2           4
 (1.551995424962959E-006,1.531411555316110E-005)           1           9
           2           5
 (-1.207014029648154E-003,2.108719291019177E-004)           1           9
           2           9
 (0.185021796841105,7.238131036956977E-021)           1           1           3
           3
 (-3.605211130321519E-002,7.571587417376192E-004)           1           1
           3           9
 (1.183342466835404E-004,-4.632348094584863E-007)           1           2
           3           3
 (2.402122472645320E-004,-5.985733976962173E-006)           1           2
           3           9
 (5.648110075556333E-004,6.634128239099988E-023)           1           3
           3           1
 (1.090350842799737E-003,-4.268391499562167E-006)           1           3
           3           2
 (2.791361111165170E-004,-4.072354182973997E-005)           1           3
           3           6
 (-1.774467910492541E-004,4.860552238969712E-005)           1           3
           3           7
 (8.433620158764787E-004,-4.336198947655011E-005)           1           3
           3           8
 (-1.515118759601175E-005,3.037920797006093E-005)           1           4
           3           6
 (1.023773857220841E-004,-4.737465619063410E-005)           1           4
           3           7
 (-9.174599921429132E-005,3.963247228338881E-005)           1           5
           3           6
 (3.387006164267539E-005,-3.960615848512261E-005)           1           5
           3           7
 (5.563295456218589E-005,-8.116352352489433E-006)           1           6
           3           3
 (-1.828187679900148E-005,7.897412321607229E-006)           1           6
           3           5
 (-1.639935560079953E-004,2.742685213718916E-005)           1           6
           3           9
 (-3.536572764641588E-005,9.687242599868189E-006)           1           7
           3           3
 (2.040026036595515E-005,-9.440148971337954E-006)           1           7
           3           4
 (6.749167816917127E-006,-7.892154974599981E-006)           1           7
           3           5
 (1.039186945343526E-004,-3.078636241817135E-005)           1           7
           3           9
 (1.917748736973351E-004,-9.860235244547968E-006)           1           8
           3           3
 (3.181091985169542E-004,-2.306163914847470E-005)           1           8
           3           9
 (-1.026644495382613E-003,2.156130752122837E-005)           1           9
           3           1
 (-1.750408220456322E-003,4.361755885621769E-005)           1           9
           3           2
 (-4.891219327348880E-004,8.180151867677553E-005)           1           9
           3           6
 (3.099375605542731E-004,-9.182103459178133E-005)           1           9
           3           7
 (-1.418079944065061E-003,1.028046656464606E-004)           1           9
           3           8
 (0.185012692370770,-9.749981481147568E-020)           1           1           4
           4
 (-4.240282963798188E-005,1.016686484320110E-005)           1           1
           4           9
 (1.183843640036478E-004,-4.634329500351636E-007)           1           2
           4           4
 (-2.434660311810029E-005,-6.598467531195781E-006)           1           3
           4           6
 (1.138744729112563E-004,1.647768343362492E-005)           1           3
           4           7
 (5.646204090935517E-004,7.970484582799844E-022)           1           4
           4           1
 (1.090070756131442E-003,-4.267305137814178E-006)           1           4
           4           2
 (-1.133251947382576E-005,2.755434498966799E-005)           1           4
           4           6
 (2.819975370268080E-004,-3.649962401795030E-005)           1           4
           4           7
 (8.430397464313247E-004,-4.334537386984183E-005)           1           4
           4           8
 (1.297705608038993E-004,-3.305606687679190E-005)           1           5
           4           6
 (1.500563702703018E-004,-6.183531950064468E-005)           1           5
           4           7
 (2.585648075200229E-005,-6.586367035576580E-006)           1           6
           4           5
 (1.440024621904245E-005,3.573333652563452E-006)           1           6
           4           9
 (2.269347848312108E-005,3.283762122980374E-006)           1           7
           4           3
 (5.618741700859942E-005,-7.272466114876339E-006)           1           7
           4           4
 (2.989833753570013E-005,-1.232052430014385E-005)           1           7
           4           5
 (-6.756629261541209E-005,-8.218439253234683E-006)           1           7
           4           9
 (1.918392185967573E-004,-9.863553559763539E-006)           1           8
           4           4
 (4.294661674612787E-005,1.065648633967242E-005)           1           9
           4           6
 (-2.014941223625573E-004,-2.450834610209663E-005)           1           9
           4           7
 (0.185012668683266,1.226016115715327E-020)           1           1           5
           5
 (-1.673173813716943E-005,-1.445004179133044E-006)           1           1
           5           9
 (1.183847794863429E-004,-4.634480841742234E-007)           1           2
           5           5
 (-1.012922458762790E-004,-1.555435583803766E-005)           1           3
           5           6
 (4.548114833106533E-005,1.143850048530996E-005)           1           3
           5           7
 (1.257610832805913E-004,4.001874680983923E-005)           1           4
           5           6
 (1.568877903820890E-004,4.735496055662315E-005)           1           4
           5           7
 (5.646197989108081E-004,-1.574943668720585E-021)           1           5
           5           1
 (1.090070432972084E-003,-4.267240163523726E-006)           1           5
           5           2
 (-2.676720812345419E-004,1.315012650876350E-005)           1           5
           5           6
 (-1.046327790127048E-004,-1.208329348426220E-005)           1           5
           5           7
 (8.430370998028215E-004,-4.334525230843791E-005)           1           5
           5           8
 (-2.018607452732430E-005,-3.099763331005777E-006)           1           6
           5           3
 (2.505762223126683E-005,7.973640303934470E-006)           1           6
           5           4
 (-5.333277252814352E-005,2.620113839806843E-006)           1           6
           5           5
 (5.988588688000447E-005,7.911306586649271E-006)           1           6
           5           9
 (3.125947176915585E-005,9.435352006401323E-006)           1           7
           5           4
 (-2.084775546283187E-005,-2.407577506787168E-006)           1           7
           5           5
 (-2.704337472301089E-005,-6.181570835977320E-006)           1           7
           5           9
 (1.918390177648927E-004,-9.863537698244027E-006)           1           8
           5           5
 (1.785875371370881E-004,2.359269252990139E-005)           1           9
           5           6
 (-8.064328231331250E-005,-1.843296342497700E-005)           1           9
           5           7
 (0.172641519410965,2.512091502943488E-019)           1           1           6
           6
 (2.381441688438521E-004,-9.322969885930395E-007)           1           2
           6           6
 (-2.834682787143226E-004,9.346878852402518E-007)           1           3
           6           3
 (1.926809147593236E-005,-8.736653300046116E-006)           1           3
           6           4
 (8.903755296296918E-005,-4.453942663605506E-005)           1           3
           6           5
 (6.096345237994106E-004,-1.474630320074405E-005)           1           3
           6           9
 (1.926994438394969E-005,-8.737432891732957E-006)           1           4
           6           3
 (1.339927179868071E-005,2.281592891654833E-005)           1           4
           6           4
 (-1.106790897941550E-004,7.784234057214947E-005)           1           4
           6           5
 (-4.098756370797872E-005,1.954968071283998E-005)           1           4
           6           9
 (8.904619853266596E-005,-4.454371517223031E-005)           1           5
           6           3
 (-1.106791446557068E-004,7.784233814728183E-005)           1           5
           6           4
 (1.800965925983405E-004,-1.976991083504898E-004)           1           5
           6           5
 (-1.895173036996379E-004,9.976740737955368E-005)           1           5
           6           9
 (1.971509332200539E-005,6.435244304747979E-024)           1           6
           6           1
 (2.321180132206738E-004,-9.087472635947299E-007)           1           6
           6           2
 (-1.638989060693887E-005,-4.881135308220086E-006)           1           6
           6           6
 (-6.673531039785521E-005,6.840072038577479E-006)           1           6
           6           7
 (1.533985616197342E-004,-7.887121159745647E-006)           1           6
           6           8
 (-6.673523363146684E-005,6.840062945886261E-006)           1           7
           6           6
 (1.316214003624294E-005,-2.140178123404722E-005)           1           7
           6           7
 (3.600860505605757E-004,-1.851408623795907E-005)           1           8
           6           6
 (4.981895044472506E-004,-1.205129537716808E-005)           1           9
           6           3
 (-3.349400812782526E-005,1.597432987299873E-005)           1           9
           6           4
 (-1.548559877902485E-004,8.152130163496556E-005)           1           9
           6           5
 (-1.021933347395677E-003,4.609250207802693E-005)           1           9
           6           9
 (0.172641508942122,-4.052119531500650E-019)           1           1           7
           7
 (2.381440336512601E-004,-9.322585609956810E-007)           1           2
           7           7
 (1.860555937485029E-004,7.484176493460530E-006)           1           3
           7           3
 (-1.079930834650499E-004,-1.300514585890887E-005)           1           3
           7           4
 (-5.256766940351364E-005,-4.573076963682997E-006)           1           3
           7           5
 (-4.002656847661381E-004,-7.717326756319160E-006)           1           3
           7           9
 (-1.080037514094362E-004,-1.300638689900538E-005)           1           4
           7           3
 (-2.853698556923597E-004,-3.734099224166597E-005)           1           4
           7           4
 (-1.497491199301253E-004,5.785332216689950E-005)           1           4
           7           5
 (2.338332359303552E-004,2.297636142254338E-005)           1           4
           7           9
 (-5.257272568261199E-005,-4.573544794712229E-006)           1           5
           7           3
 (-1.497491011039104E-004,5.785329386073276E-005)           1           5
           7           4
 (5.319853685074300E-005,-9.361475778239031E-005)           1           5
           7           5
 (1.135946483501747E-004,7.313600725981061E-006)           1           5
           7           9
 (-6.914494468425015E-005,7.627475323956077E-006)           1           6
           7           6
 (1.639055835204967E-005,4.881079056778805E-006)           1           6
           7           7
 (1.971508097511012E-005,1.770129663828759E-023)           1           7
           7           1
 (2.321176726286008E-004,-9.086622820918508E-007)           1           7
           7           2
 (1.639023376374943E-005,4.881114499952637E-006)           1           7
           7           6
 (6.673536766886545E-005,-6.840073440766325E-006)           1           7
           7           7
 (1.533986400173618E-004,-7.887069331441620E-006)           1           7
           7           8
 (3.600864816207019E-004,-1.851411235465133E-005)           1           8
           7           7
 (-3.270889176393470E-004,-6.306972976156382E-006)           1           9
           7           3
 (1.910694005065870E-004,1.877494934392209E-005)           1           9
           7           4
 (9.281560594723514E-005,5.977134281555007E-006)           1           9
           7           5
 (6.711673269087997E-004,-1.103651161708357E-006)           1           9
           7           9
 (-5.602005421413129E-002,-2.880317497665248E-003)           1           1
           8           1
 (3.165395388782676E-002,1.503289933879774E-003)           1           1
           8           2
 (0.188981261377894,9.178263379248566E-020)           1           1           8
           8
 (2.657463719527968E-003,1.262073074405914E-004)           1           2
           8           1
 (-2.497959421713673E-004,-1.088333150975525E-005)           1           2
           8           2
 (-1.733741449829351E-004,6.787315243902825E-007)           1           2
           8           8
 (-8.318196758218206E-004,6.993516114569732E-005)           1           3
           8           3
 (-7.359345639926781E-006,-1.273017479146912E-004)           1           3
           8           4
 (1.334629922195602E-003,-1.402358154416769E-004)           1           3
           8           9
 (-7.359870312253322E-006,-1.273055620934052E-004)           1           4
           8           3
 (-8.327984877351535E-004,2.873853296005271E-005)           1           4
           8           4
 (-1.760492216548156E-005,-4.063911772149548E-005)           1           4
           8           5
 (1.769945775966327E-005,2.039593792393933E-004)           1           4
           8           9
 (-1.760482964894353E-005,-4.063913934130524E-005)           1           5
           8           4
 (-5.832711535066712E-004,6.085766013986189E-004)           1           5
           8           5
 (6.393068420677149E-007,1.191584234341556E-005)           1           5
           8           9
 (1.499070592169403E-004,-1.776922378858874E-005)           1           6
           8           6
 (4.453038357312582E-006,2.802897518649036E-005)           1           6
           8           7
 (4.453011399059144E-006,2.802898555725469E-005)           1           7
           8           6
 (1.480328384627299E-004,-2.956644527513201E-005)           1           7
           8           7
 (4.669568404924870E-003,2.158697427840805E-022)           1           8
           8           1
 (-3.721057869160701E-004,1.456730679916188E-006)           1           8
           8           2
 (-2.927816660481531E-004,1.505357865922131E-005)           1           8
           8           8
 (1.397786050531490E-003,-1.468719421491476E-004)           1           9
           8           3
 (1.853574952524747E-005,2.136048550375527E-004)           1           9
           8           4
 (6.695631296989246E-007,1.247939787199220E-005)           1           9
           8           5
 (-2.234620872364260E-003,2.819358418209442E-004)           1           9
           8           9
 (-3.605211130321485E-002,-7.571587417376214E-004)           1           1
           9           3
 (-4.240282963804180E-005,-1.016686484319771E-005)           1           1
           9           4
 (-1.673173813712939E-005,1.445004179121951E-006)           1           1
           9           5
 (0.203844298673208,3.378966440843064E-019)           1           1           9
           9
 (2.402517492072254E-004,4.104857076655375E-006)           1           2
           9           3
 (-1.518006446278943E-004,5.942717636589052E-007)           1           2
           9           9
 (-1.026644495382613E-003,-2.156130752122837E-005)           1           3
           9           1
 (-7.185503356019207E-004,-1.227694418341927E-005)           1           3
           9           2
 (-6.021731188367490E-004,7.503421292049733E-005)           1           3
           9           6
 (3.836125457207990E-004,-9.666476213519883E-005)           1           3
           9           7
 (-1.356934209186095E-003,4.122507498885712E-005)           1           3
           9           8
 (3.388009937858856E-005,-6.476076576456994E-005)           1           4
           9           6
 (-2.232794334194370E-004,9.717796721076133E-005)           1           4
           9           7
 (1.990815272358136E-004,-8.114842216105847E-005)           1           5
           9           6
 (-7.497074797190372E-005,8.374618922032292E-005)           1           5
           9           7
 (-1.649894372932787E-004,2.055869246600854E-005)           1           6
           9           3
 (9.283101636206046E-006,-1.774451179029347E-005)           1           6
           9           4
 (5.454862234382276E-005,-2.223481010720431E-005)           1           6
           9           5
 (1.955422858842629E-004,-2.851503136106318E-005)           1           6
           9           9
 (1.051064723418534E-004,-2.648526092439193E-005)           1           7
           9           3
 (-6.117883356117511E-005,2.662685585669425E-005)           1           7
           9           4
 (-2.054211864757972E-005,2.294660125829578E-005)           1           7
           9           5
 (-1.241693308326858E-004,3.403227688793674E-005)           1           7
           9           9
 (3.187969449025069E-004,-9.685491361511412E-006)           1           8
           9           3
 (-1.924318110124247E-004,9.894032893460559E-006)           1           8
           9           9
 (1.876252893171317E-003,-5.101208519197237E-021)           1           9
           9           1
 (1.239472661148148E-003,-4.852107283358648E-006)           1           9
           9           2
 (1.007321870972796E-003,-1.468933695505234E-004)           1           9
           9           6
 (-6.396554223177933E-004,1.753150582409762E-004)           1           9
           9           7
 (2.275407874328435E-003,-1.169915049536262E-004)           1           9
           9           8
 (-3.255456713123955E-002,-1.274399090444392E-004)           2           1
           1           1
 (1.518542304300893E-003,-2.270236373843673E-023)           2           1
           1           2
 (2.657463719527971E-003,-1.262073074405917E-004)           2           1
           1           8
 (0.176537670259998,-1.839904870175337E-020)           2           2           1
           1
 (1.197289164409129E-004,-4.687059852880172E-007)           2           2
           1           2
 (1.667217730354059E-004,-8.572119696857337E-006)           2           2
           1           8
 (-1.068525102706989E-003,1.411452871059260E-004)           2           3
           1           3
 (-1.729069475389111E-005,-1.637375732932074E-004)           2           3
           1           4
 (1.710858351477426E-003,-2.623278402286325E-004)           2           3
           1           9
 (-1.729152686183805E-005,-1.637514944396082E-004)           2           4
           1           3
 (-1.072445109582410E-003,8.808443799350781E-005)           2           4
           1           4
 (-2.519765411602408E-005,-5.134075619519164E-005)           2           4
           1           5
 (3.528446802742381E-005,2.617051312268387E-004)           2           4
           1           9
 (-2.519786395281614E-005,-5.134066197206827E-005)           2           5
           1           4
 (-7.150684545540676E-004,8.207198396074539E-004)           2           5
           1           5
 (1.551995424960877E-006,1.531411555316009E-005)           2           5
           1           9
 (2.250084241242545E-004,-3.756874497227484E-005)           2           6
           1           6
 (8.731556577178924E-006,4.198994756043969E-005)           2           6
           1           7
 (8.731578269226637E-006,4.198994250998463E-005)           2           7
           1           6
 (2.213331852601256E-004,-5.524188235680732E-005)           2           7
           1           7
 (3.165395388782676E-002,-1.503289933879774E-003)           2           8
           1           1
 (-2.497030796716899E-004,1.283867721759455E-005)           2           8
           1           2
 (-3.702929742655585E-004,3.671446487545537E-005)           2           8
           1           8
 (7.021994335030115E-004,-1.076691503918620E-004)           2           9
           1           3
 (1.448062952642493E-005,1.074040118379803E-004)           2           9
           1           4
 (-1.207014029648150E-003,2.108719291019193E-004)           2           9
           1           9
 (1.518495763299409E-003,1.188893574589769E-005)           2           1
           2           1
 (1.197289164409129E-004,4.687059852880172E-007)           2           1
           2           2
 (-2.497959421713676E-004,1.088333150975511E-005)           2           1
           2           8
 (1.197289164409129E-004,4.687059852880117E-007)           2           2
           2           1
 (0.188341061401067,1.599339984470116E-027)           2           2           2
           2
 (-2.860216404840972E-003,1.358354407177980E-004)           2           2
           2           8
 (-2.052963002207825E-002,2.630102534946820E-003)           2           3
           2           3
 (-3.197805728877311E-004,-3.146155487863109E-003)           2           3
           2           4
 (-6.004484917431648E-006,-1.890998079074772E-004)           2           3
           2           5
 (-2.330898326660511E-003,3.480656543940462E-004)           2           3
           2           9
 (-3.197805728877292E-004,-3.146155487863087E-003)           2           4
           2           3
 (-2.060681742605082E-002,1.611338605477626E-003)           2           4
           2           4
 (-4.801520116142450E-004,-9.880798676378904E-004)           2           4
           2           5
 (-4.667912711730062E-005,-3.567749811169108E-004)           2           4
           2           9
 (-6.004484917437670E-006,-1.890998079074716E-004)           2           5
           2           3
 (-4.801520116142472E-004,-9.880798676379068E-004)           2           5
           2           4
 (-1.379720177418721E-002,1.571113722762661E-002)           2           5
           2           5
 (-2.033513555752804E-006,-2.087436069598531E-005)           2           5
           2           9
 (2.124385586223725E-002,-3.461573391412132E-003)           2           6
           2           6
 (8.083037639563901E-004,3.965065540768786E-003)           2           6
           2           7
 (8.083037639564024E-004,3.965065540768776E-003)           2           7
           2           6
 (2.090364663220041E-002,-5.130440277013848E-003)           2           7
           2           7
 (-2.497959421713673E-004,1.088333150975525E-005)           2           8
           2           1
 (-2.860216404840967E-003,1.358354407177976E-004)           2           8
           2           2
 (1.949741994193846E-002,-1.856101926622075E-003)           2           8
           2           8
 (-2.330898326660501E-003,3.480656543940477E-004)           2           9
           2           3
 (-4.667912711730389E-005,-3.567749811169115E-004)           2           9
           2           4
 (-2.033513555750970E-006,-2.087436069598549E-005)           2           9
           2           5
 (-9.659441121881347E-003,1.648615560537376E-003)           2           9
           2           9
 (1.183342466835400E-004,4.632348094584944E-007)           2           1
           3           3
 (2.402517492072238E-004,-4.104857076655507E-006)           2           1
           3           9
 (0.187603825872322,-2.911061825995050E-021)           2           2           3
           3
 (2.894999091848318E-003,-6.080016835444889E-005)           2           2
           3           9
 (1.090350842799737E-003,4.268391499562173E-006)           2           3
           3           1
 (2.093846221597128E-002,-3.465805423058541E-020)           2           3
           3           2
 (-8.972277204506081E-005,1.273161489476053E-005)           2           3
           3           6
 (5.706431878243132E-005,-1.539135098923601E-005)           2           3
           3           7
 (1.469610074581052E-003,-6.979358100175212E-005)           2           3
           3           8
 (4.941655141952824E-006,-9.811073756442443E-006)           2           4
           3           6
 (-3.319243986901488E-005,1.520081176905157E-005)           2           4
           3           7
 (2.974225591251055E-005,-1.270959886422510E-005)           2           5
           3           6
 (-1.101063515027798E-005,1.277374573574280E-005)           2           5
           3           7
 (1.132556581568246E-004,-1.607049013203591E-005)           2           6
           3           3
 (-6.120445259170762E-006,1.215480220747933E-005)           2           6
           3           4
 (-3.683732535087153E-005,1.574277857568481E-005)           2           6
           3           5
 (-9.081693706937524E-003,1.482339547741302E-003)           2           6
           3           9