 &FCI NORB=            9 ,NELEC=           2 ,MS2=            0 ,
  ORBSYM=
                   0,                   0,                   0,                   0,                   0,                   0,                   0,                   0,                   0,
  ISYM=           1
 NPROP =           1           1           1
 PROPBITLEN=          15
 &END
 (1.00229310057076,-4.199482110526921E-035)           1           1           1
           1
 (4.961142770169071E-002,0.176753202758355)           1           1           1
           2
 (8.888505004812423E-003,0.131341348053843)           1           1           1
           8
 (4.961142770169071E-002,0.176753202758355)           1           2           1
           1
 (-5.879217265232962E-002,3.582627741730569E-002)           1           2
           1           2
 (-4.921476494654446E-002,1.747625915835337E-002)           1           2
           1           8
 (1.481897953670841E-002,-8.723222500331301E-004)           1           3
           1           3
 (1.062351155797084E-003,2.134869497853052E-002)           1           3
           1           4
 (-7.301237611277047E-003,-2.396696551851201E-003)           1           3
           1           5
 (1.520486862022480E-002,-6.087127249058744E-004)           1           3
           1           9
 (1.062351155797083E-003,2.134869497853052E-002)           1           4
           1           3
 (1.562502401940732E-002,-2.390090303545160E-003)           1           4
           1           4
 (-3.848755280305940E-003,-3.840805607311815E-003)           1           4
           1           5
 (1.276988262446742E-003,2.193724380714276E-002)           1           4
           1           9
 (-7.301237611277046E-003,-2.396696551851202E-003)           1           5
           1           3
 (-3.848755280305937E-003,-3.840805607311816E-003)           1           5
           1           4
 (-2.523186298193934E-002,-3.324559025484621E-003)           1           5
           1           5
 (-7.939965156007540E-003,-2.574460857867240E-003)           1           5
           1           9
 (-7.649007224879318E-004,8.591061255601631E-003)           1           6
           1           6
 (-8.350086118532251E-005,-2.004801748341529E-003)           1           6
           1           7
 (-8.350086118532406E-005,-2.004801748341528E-003)           1           7
           1           6
 (-1.476655048596501E-003,-8.497699493673244E-003)           1           7
           1           7
 (8.888505004812424E-003,0.131341348053843)           1           8           1
           1
 (-4.921476494654446E-002,1.747625915835337E-002)           1           8
           1           2
 (-4.412253757905828E-002,5.999446592992690E-003)           1           8
           1           8
 (1.520486862022482E-002,-6.087127249058699E-004)           1           9
           1           3
 (1.276988262446742E-003,2.193724380714277E-002)           1           9
           1           4
 (-7.939965156007554E-003,-2.574460857867238E-003)           1           9
           1           5
 (1.933328322022571E-002,-4.092988828453196E-004)           1           9
           1           9
 (4.961142770169071E-002,-0.176753202758355)           1           1           2
           1
 (0.518082710448974,1.068999858589349E-018)           1           1           2
           2
 (9.875785004597666E-002,2.064398992977963E-002)           1           1
           2           8
 (6.884796089037838E-002,-3.199128057164262E-020)           1           2
           2           1
 (2.872617598501954E-003,1.023442274385123E-002)           1           2
           2           2
 (2.158467712126706E-003,3.189471003101471E-002)           1           2
           2           8
 (-2.166971094190575E-003,9.930599920339813E-003)           1           3
           2           3
 (-1.427030702061974E-002,-3.249906612473173E-003)           1           3
           2           4
 (2.930958560960105E-003,-4.369735576809393E-003)           1           3
           2           5
 (1.046879425770815E-003,-4.399135362146710E-003)           1           3
           2           9
 (-1.427034059021170E-002,-3.249914321849287E-003)           1           4
           2           3
 (-1.315541900968511E-003,1.074272913867871E-002)           1           4
           2           4
 (3.244122958187497E-003,-1.826535473364673E-003)           1           4
           2           5
 (6.378980420349653E-003,1.396324006111609E-003)           1           4
           2           9
 (2.930965938244452E-003,-4.369746760044917E-003)           1           5
           2           3
 (3.244123506217360E-003,-1.826535642488172E-003)           1           5
           2           4
 (6.860398880764759E-003,-1.601844091706581E-002)           1           5
           2           5
 (-1.374197857395816E-003,2.064947771891336E-003)           1           5
           2           9
 (-1.649632984783325E-002,-6.255286483506363E-003)           1           6
           2           6
 (3.994392411455038E-003,9.437527678200618E-004)           1           6
           2           7
 (3.994392413580370E-003,9.437527610308837E-004)           1           7
           2           6
 (1.755153366837232E-002,1.789182348787205E-003)           1           7
           2           7
 (5.112064639007926E-002,1.068607671570900E-002)           1           8
           2           1
 (1.003660094215275E-003,1.483063656208559E-002)           1           8
           2           2
 (-1.847336660182627E-003,1.325304505296906E-002)           1           8
           2           8
 (-7.558377759164638E-004,3.176137858489452E-003)           1           9
           2           3
 (-4.605540570667245E-003,-1.008126555825378E-003)           1           9
           2           4
 (9.921524952950301E-004,-1.490865141201387E-003)           1           9
           2           5
 (1.346123396145747E-004,-5.217978139493429E-004)           1           9
           2           9
 (0.516744212646085,1.079293905401601E-018)           1           1           3
           3
 (9.489497458644545E-002,6.640610543387128E-006)           1           1
           3           9
 (1.174409279906557E-003,4.184128944878402E-003)           1           2
           3           3
 (7.649107661487907E-003,2.725920460060983E-002)           1           2
           3           9
 (2.713498265672238E-002,4.066923319342831E-019)           1           3
           3           1
 (-5.020931258060165E-003,-1.788833096826943E-002)           1           3
           3           2
 (2.125419865272526E-003,2.461504294562541E-003)           1           3
           3           6
 (-8.096324739075257E-004,3.827909651638360E-004)           1           3
           3           7
 (-6.615364814533063E-004,-9.775236382502758E-003)           1           3
           3           8
 (5.555685045253492E-004,3.220482221537570E-003)           1           4
           3           6
 (2.285374806967398E-003,-2.500234212214960E-003)           1           4
           3           7
 (-1.291848978169275E-003,1.980044870358293E-003)           1           5
           3           6
 (7.790755893773567E-004,3.396490301327695E-003)           1           5
           3           7
 (1.023705067102719E-003,1.185579554310690E-003)           1           6
           3           3
 (2.675892605572558E-004,1.551143686027178E-003)           1           6
           3           4
 (-6.222183917535076E-004,9.536876026122064E-004)           1           6
           3           5
 (3.873650654990230E-003,4.640698223618765E-003)           1           6
           3           9
 (-3.899582100987541E-004,1.843706573500829E-004)           1           7
           3           3
 (1.100749637190073E-003,-1.204236630314477E-003)           1           7
           3           4
 (3.752414278623434E-004,1.635917963828219E-003)           1           7
           3           5
 (-1.401055522686028E-003,7.164919780183131E-004)           1           7
           3           9
 (5.999225556849909E-005,8.864726374619237E-004)           1           8
           3           3
 (6.178926907585243E-004,9.139789887031277E-003)           1           8
           3           9
 (2.799624005453819E-002,1.959114636489698E-006)           1           9
           3           1
 (-1.622817835135318E-003,-5.783251200435756E-003)           1           9
           3           2
 (3.492865958663942E-003,4.184512020108212E-003)           1           9
           3           6
 (-1.263329925434446E-003,6.460601788312857E-004)           1           9
           3           7
 (-7.126858521037027E-004,-1.054200317591819E-002)           1           9
           3           8
 (0.516744697327548,1.121419778572544E-018)           1           1           4
           4
 (1.389759366978588E-003,-2.312601560258792E-006)           1           1
           4           9
 (1.174451607632295E-003,4.184279748060790E-003)           1           2
           4           4
 (1.127152176332619E-004,3.990231944735811E-004)           1           2
           4           9
 (3.620859088245346E-003,2.761914956424602E-004)           1           3
           4           6
 (1.283821013729833E-003,-2.705398226401028E-003)           1           3
           4           7
 (2.713516091738337E-002,3.474912678913265E-019)           1           4
           4           1
 (-5.020924632053656E-003,-1.788830744963729E-002)           1           4
           4           2
 (-5.628292373742055E-004,-7.157369570673641E-004)           1           4
           4           6
 (4.604747046243124E-004,-3.854842041487516E-004)           1           4
           4           7
 (-6.615382357434545E-004,-9.775262338290422E-003)           1           4
           4           8
 (-2.832329622164466E-003,2.111053107927554E-003)           1           5
           4           6
 (-1.444939131963192E-003,-3.654472099852702E-003)           1           5
           4           7
 (1.743984754086204E-003,1.330274150632756E-004)           1           6
           4           3
 (-2.710870947012901E-004,-3.447351815023298E-004)           1           6
           4           4
 (-1.364193039752756E-003,1.016789807259431E-003)           1           6
           4           5
 (6.543169522161561E-003,5.390923264831749E-004)           1           6
           4           9
 (6.183516900797196E-004,-1.303053507738639E-003)           1           7
           4           3
 (2.217878449430896E-004,-1.856686325009799E-004)           1           7
           4           4
 (-6.959557405697069E-004,-1.760178413565073E-003)           1           7
           4           5
 (2.326373906612353E-003,-5.051215339008273E-003)           1           7
           4           9
 (5.999744162503740E-005,8.865492417998952E-004)           1           8
           4           4
 (9.281327765683297E-006,1.338386814869544E-004)           1           8
           4           9
 (4.100115284610458E-004,-6.822701756368988E-007)           1           9
           4           1
 (-2.391344950010709E-005,-8.465587626542518E-005)           1           9
           4           2
 (5.899975718820579E-003,4.860997133462512E-004)           1           9
           4           6
 (2.097691169472688E-003,-4.554680719530216E-003)           1           9
           4           7
 (-1.070513797462498E-005,-1.543719958712080E-004)           1           9
           4           8
 (0.516744697570094,6.427968783864231E-019)           1           1           5
           5
 (1.270527148544059E-003,-9.836819858735498E-006)           1           1
           5           9
 (1.174451628724279E-003,4.184279823206284E-003)           1           2
           5           5
 (1.052633297259936E-004,3.641670009473122E-004)           1           2
           5           9
 (1.256241087963480E-003,-1.226611375844769E-003)           1           3
           5           6
 (-3.825306607837603E-003,1.299019465965969E-004)           1           3
           5           7
 (3.133666728194266E-003,-2.272779305827243E-003)           1           4
           5           6
 (3.296591220322563E-003,1.438313285545588E-003)           1           4
           5           7
 (2.713516100521872E-002,4.449611711413364E-020)           1           5
           5           1
 (-5.020924672003603E-003,-1.788830742575381E-002)           1           5
           5           2
 (-1.562608494228773E-003,-1.745787903672512E-003)           1           5
           5           6
 (3.491644144862607E-004,2.690415625241359E-006)           1           5
           5           7
 (-6.615382597754776E-004,-9.775262362225798E-003)           1           5
           5           8
 (6.050677408568841E-004,-5.907966568232048E-004)           1           6
           5           3
 (1.509332175092190E-003,-1.094685346990708E-003)           1           6
           5           4
 (-7.526312317666489E-004,-8.408596876134773E-004)           1           6
           5           5
 (2.344753885759649E-003,-2.348478166559627E-003)           1           6
           5           9
 (-1.842456830006510E-003,6.256718893058811E-005)           1           7
           5           3
 (1.587804936762120E-003,6.927643618454854E-004)           1           7
           5           4
 (1.681752695165426E-004,1.295755013443689E-006)           1           7
           5           5
 (-6.904565132619007E-003,2.756801744433063E-004)           1           7
           5           9
 (5.999744315979855E-005,8.865492730298006E-004)           1           8
           5           5
 (9.228829371872278E-006,1.223058646951440E-004)           1           8
           5           9
 (3.748352769462569E-004,-2.902089131472885E-006)           1           9
           5           1
 (-2.233245238846104E-005,-7.726081912523436E-005)           1           9
           5           2
 (2.114264806413216E-003,-2.117622837589997E-003)           1           9
           5           6
 (-6.225845953420736E-003,2.485803687137619E-004)           1           9
           5           7
 (-1.064463966681899E-005,-1.410698561847065E-004)           1           9
           5           8
 (0.474224089568572,1.182215981961444E-018)           1           1           6
           6
 (-2.653788336992383E-003,-9.454788145978586E-003)           1           2
           6           6
 (3.809791203343772E-003,-4.547230236923564E-004)           1           3
           6           3
 (1.959039030992259E-003,1.361607218816412E-004)           1           3
           6           4
 (-3.652955855465995E-004,2.852174931887020E-003)           1           3
           6           5
 (9.900357526725108E-003,-1.069811215333340E-003)           1           3
           6           9
 (1.959038731924370E-003,1.361606830425242E-004)           1           4
           6           3
 (2.009306667156328E-004,3.999966414055767E-003)           1           4
           6           4
 (1.557496731626139E-003,2.042643489530441E-003)           1           4
           6           5
 (5.121049183127648E-003,5.734279336886908E-004)           1           4
           6           9
 (-3.652955193904867E-004,2.852174471469444E-003)           1           5
           6           3
 (1.557496728253631E-003,2.042643494972942E-003)           1           5
           6           4
 (1.314447132068481E-003,-2.638804357208664E-003)           1           5
           6           5
 (-8.400489828118064E-004,7.350671243692846E-003)           1           5
           6           9
 (8.855371762624947E-003,-1.734958706954130E-019)           1           6
           6           1
 (-4.895002353261971E-003,-1.743967601260837E-002)           1           6
           6           2
 (1.013850430755056E-003,5.858933001213574E-004)           1           6
           6           6
 (1.878873796377152E-003,-2.432638997803954E-003)           1           6
           6           7
 (-7.739751697094537E-004,-1.143667983151184E-002)           1           6
           6           8
 (1.878873770466488E-003,-2.432638962943030E-003)           1           7
           6           6
 (4.110824166880707E-004,1.540542121374340E-003)           1           7
           6           7
 (-5.775366534163802E-004,-8.533995182352441E-003)           1           8
           6           6
 (6.327515671365079E-003,-6.837373599907770E-004)           1           9
           6           3
 (3.272964640271710E-003,3.664889220535151E-004)           1           9
           6           4
 (-5.368919620194924E-004,4.697960999516975E-003)           1           9
           6           5
 (7.855605477272260E-003,-7.586357811537986E-004)           1           9
           6           9
 (0.474224089643841,7.522879776949909E-019)           1           1           7
           7
 (-2.653788331513855E-003,-9.454788126459895E-003)           1           2
           7           7
 (-2.841674935714567E-003,2.557967818567854E-003)           1           3
           7           3
 (1.214406871050620E-003,9.578927110363950E-004)           1           3
           7           4
 (-9.267819289187310E-004,2.559209544358760E-003)           1           3
           7           5
 (-7.323905639741397E-003,6.729820355095501E-003)           1           3
           7           9
 (1.214406681446571E-003,9.578925691287900E-004)           1           4
           7           3
 (-1.056919029809778E-003,9.835724302349413E-004)           1           4
           7           4
 (1.674095159986153E-003,-4.182302304246769E-003)           1           4
           7           5
 (3.152641193255124E-003,2.366004118382150E-003)           1           4
           7           9
 (-9.267817827799032E-004,2.559209132682785E-003)           1           5
           7           3
 (1.674095172990135E-003,-4.182302326872072E-003)           1           5
           7           4
 (2.164273476427903E-005,6.994018002511752E-005)           1           5
           7           5
 (-2.329875765304293E-003,6.452619986371684E-003)           1           5
           7           9
 (-2.874967659474201E-003,1.534130387361626E-003)           1           6
           7           6
 (-1.013850213890503E-003,-5.858930566163304E-004)           1           6
           7           7
 (8.855371774450348E-003,-2.057776089111020E-019)           1           7
           7           1
 (-4.895002353799213E-003,-1.743967601684910E-002)           1           7
           7           2
 (-1.013850207699569E-003,-5.858930636280595E-004)           1           7
           7           6
 (-1.878873743405427E-003,2.432638969053958E-003)           1           7
           7           7
 (-7.739751903017801E-004,-1.143667986870965E-002)           1           7
           7           8
 (-5.775366732092481E-004,-8.533995202559557E-003)           1           8
           7           7
 (-4.680853927832265E-003,4.301162261107230E-003)           1           9
           7           3
 (2.014915915262622E-003,1.512160336500659E-003)           1           9
           7           4
 (-1.489070369560073E-003,4.123998035806801E-003)           1           9
           7           5
 (-5.761593594984182E-003,5.400418251681704E-003)           1           9
           7           9
 (8.888505004812424E-003,-0.131341348053843)           1           1           8
           1
 (9.875785004597666E-002,-2.064398992977963E-002)           1           1
           8           2
 (0.506256903598092,9.940515540167647E-019)           1           1           8
           8
 (5.112064639007926E-002,-1.068607671570900E-002)           1           2
           8           1
 (1.475377948357566E-002,2.835943408773942E-002)           1           2
           8           2
 (1.954173234775102E-003,6.962232258871774E-003)           1           2
           8           8
 (-4.702938328537660E-005,5.359726917638422E-003)           1           3
           8           3
 (-7.716634652677379E-003,-1.377623357451641E-004)           1           3
           8           4
 (1.041394824130359E-003,-2.571795610904761E-003)           1           3
           8           5
 (-2.051004243933869E-004,7.440321141782638E-003)           1           3
           8           9
 (-7.716646848688487E-003,-1.377625706209346E-004)           1           4
           8           3
 (4.800857957042136E-004,5.687080480686631E-003)           1           4
           8           4
 (1.477454747732952E-003,-1.292852345160382E-003)           1           4
           8           5
 (-1.074786353730737E-002,-1.013160945616149E-004)           1           4
           8           9
 (1.041396558236247E-003,-2.571800033335164E-003)           1           5
           8           3
 (1.477454925371011E-003,-1.292852415555562E-003)           1           5
           8           4
 (1.812787074371387E-003,-9.008561390484683E-003)           1           5
           8           5
 (1.518601108431679E-003,-3.789791597784399E-003)           1           5
           8           9
 (-1.102847018544908E-002,-1.738739956684963E-003)           1           6
           8           6
 (2.596492158370615E-003,6.738203719742404E-005)           1           6
           8           7
 (2.596492158513621E-003,6.738203746111238E-005)           1           7
           8           6
 (1.110380966391867E-002,-1.164380990025091E-003)           1           7
           8           7
 (4.452854906503912E-002,3.043257301969088E-020)           1           8
           8           1
 (3.616112469190173E-003,1.288330650579444E-002)           1           8
           8           2
 (9.540191926348130E-004,1.409712477728576E-002)           1           8
           8           8
 (-1.582537423394758E-004,5.740887975115477E-003)           1           9
           8           3
 (-8.292946891755125E-003,-7.817422628006007E-005)           1           9
           8           4
 (1.171737750985410E-003,-2.924166227420133E-003)           1           9
           8           5
 (-1.771732409582355E-004,3.815315799108080E-003)           1           9
           8           9
 (9.489497458644543E-002,-6.640610543386117E-006)           1           1
           9           3
 (1.389759366978512E-003,2.312601560292707E-006)           1           1
           9           4
 (1.270527148544064E-003,9.836819858720197E-006)           1           1
           9           5
 (0.544462523267906,1.259810250198110E-018)           1           1           9
           9
 (7.652922708475618E-003,2.725813378595534E-002)           1           2
           9           3
 (1.113866318319156E-004,3.993961044666739E-004)           1           2
           9           4
 (9.961206490172574E-005,3.657532087213632E-004)           1           2
           9           5
 (4.291594663942998E-003,1.528988529794825E-002)           1           2
           9           9
 (2.799624005453819E-002,-1.959114636489411E-006)           1           3
           9           1
 (2.248817649477319E-003,8.009823925434971E-003)           1           3
           9           2
 (5.669608884805890E-003,6.324573638430779E-003)           1           3
           9           6
 (-2.174217256617276E-003,8.898638543369608E-004)           1           3
           9           7
 (-9.255696989390028E-004,-1.366254584097706E-002)           1           3
           9           8
 (4.100115284610460E-004,6.822701756366439E-007)           1           4
           9           1
 (3.273105249300253E-005,1.173628281362739E-004)           1           4
           9           2
 (1.522937522076136E-003,8.211309366993068E-003)           1           4
           9           6
 (6.032102188115286E-003,-6.420708900386213E-003)           1           4
           9           7
 (-1.320823345989206E-005,-2.001146871376993E-004)           1           4
           9           8
 (3.748352769462565E-004,2.902089131472630E-006)           1           5
           9           1
 (2.927109062537315E-005,1.074768836733286E-004)           1           5
           9           2
 (-3.496389297482375E-003,5.132185455716365E-003)           1           5
           9           6
 (1.970076124994155E-003,8.632508509243846E-003)           1           5
           9           7
 (-1.096321995902082E-005,-1.830213627275949E-004)           1           5
           9           8
 (4.018592305363638E-003,4.482828199452931E-003)           1           6
           9           3
 (1.079449918325525E-003,5.820130933147172E-003)           1           6
           9           4
 (-2.478221332143374E-003,3.637664896834063E-003)           1           6
           9           5
 (1.605233030349117E-003,1.852292767263992E-003)           1           6
           9           9
 (-1.541074935500673E-003,6.307313260628741E-004)           1           7
           9           3
 (4.275520705113352E-003,-4.550963236934443E-003)           1           7
           9           4
 (1.396379195474779E-003,6.118674526963071E-003)           1           7
           9           5
 (-5.854141314078971E-004,2.590108034598356E-004)           1           7
           9           9
 (6.191718740493721E-004,9.139703317812791E-003)           1           8
           9           3
 (8.835811896815990E-006,1.338688377199127E-004)           1           8
           9           4
 (7.333923209645837E-006,1.224341330831988E-004)           1           8
           9           5
 (7.854234162427123E-004,1.160584124725751E-002)           1           8
           9           9
 (3.581741030171724E-002,8.637039945526776E-020)           1           9
           9           1
 (2.697324413525470E-004,9.609873633362700E-004)           1           9
           9           2
 (4.450389376406140E-003,5.135344181055629E-003)           1           9
           9           6
 (-1.623016912088046E-003,7.180882656974843E-004)           1           9
           9           7
 (-4.776655902778601E-004,-7.058253918512800E-003)           1           9
           9           8
 (4.961142770169071E-002,-0.176753202758355)           2           1           1
           1
 (6.884796089037837E-002,-2.397078580195368E-019)           2           1
           1           2
 (5.112064639007927E-002,1.068607671570899E-002)           2           1
           1           8
 (0.518082710448974,-1.068999858589349E-018)           2           2           1
           1
 (2.872617598501954E-003,1.023442274385123E-002)           2           2
           1           2
 (1.003660094215275E-003,1.483063656208559E-002)           2           2
           1           8
 (-2.166971094190573E-003,9.930599920339813E-003)           2           3
           1           3
 (-1.427034059021169E-002,-3.249914321849289E-003)           2           3
           1           4
 (2.930965938244439E-003,-4.369746760044915E-003)           2           3
           1           5
 (-7.558377759164733E-004,3.176137858489449E-003)           2           3
           1           9
 (-1.427030702061975E-002,-3.249906612473171E-003)           2           4
           1           3
 (-1.315541900968513E-003,1.074272913867871E-002)           2           4
           1           4
 (3.244123506217358E-003,-1.826535642488169E-003)           2           4
           1           5
 (-4.605540570667243E-003,-1.008126555825382E-003)           2           4
           1           9
 (2.930958560960113E-003,-4.369735576809393E-003)           2           5
           1           3
 (3.244122958187491E-003,-1.826535473364673E-003)           2           5
           1           4
 (6.860398880764759E-003,-1.601844091706581E-002)           2           5
           1           5
 (9.921524952950299E-004,-1.490865141201404E-003)           2           5
           1           9
 (-1.649632984783324E-002,-6.255286483506361E-003)           2           6
           1           6
 (3.994392413580372E-003,9.437527610308822E-004)           2           6
           1           7
 (3.994392411455036E-003,9.437527678200624E-004)           2           7
           1           6
 (1.755153366837232E-002,1.789182348787208E-003)           2           7
           1           7
 (9.875785004597665E-002,2.064398992977963E-002)           2           8
           1           1
 (2.158467712126709E-003,3.189471003101470E-002)           2           8
           1           2
 (-1.847336660182627E-003,1.325304505296906E-002)           2           8
           1           8
 (1.046879425770820E-003,-4.399135362146708E-003)           2           9
           1           3
 (6.378980420349662E-003,1.396324006111610E-003)           2           9
           1           4
 (-1.374197857395819E-003,2.064947771891337E-003)           2           9
           1           5
 (1.346123396145793E-004,-5.217978139493459E-004)           2           9
           1           9
 (-5.879217265232961E-002,-3.582627741730569E-002)           2           1
           2           1
 (2.872617598501954E-003,-1.023442274385123E-002)           2           1
           2           2
 (1.475377948357566E-002,-2.835943408773942E-002)           2           1
           2           8
 (2.872617598501954E-003,-1.023442274385123E-002)           2           2
           2           1
 (0.511856383724884,4.467728586111472E-035)           2           2           2
           2
 (-1.143391498599509E-002,-2.390105482262267E-003)           2           2
           2           8
 (-1.963173106482945E-002,-1.043315233753644E-002)           2           3
           2           3
 (1.527880561825623E-002,-2.813052444166285E-002)           2           3
           2           4
 (7.469683571815780E-003,8.755101314628727E-003)           2           3